[Molden Format]
made by pyscf v[2.0.1]
[Atoms] (AU)
C   1   6     0.00000000000000     0.00000000000000     0.00000000000000
O   2   8     2.13161107002117     0.00000000000000     0.00000000000000
[GTO]
1 0
 s    6 1.00
             3047.5249  0.0018347001629433
             457.36951    0.01403730124668
             103.94869   0.068842606114048
             29.210155    0.23218442062076
              9.286663    0.46794134155879
              3.163927    0.36231203217765
 s    3 1.00
             7.8682724   -0.11933240861517
             1.8812885   -0.16085421161283
             0.5442493     1.1434564825515
 s    1 1.00
             0.1687144                   1
 p    3 1.00
             7.8682724   0.068999095584993
             1.8812885    0.31642397975315
             0.5442493    0.74430825237435
 p    1 1.00
             0.1687144                   1

2 0
 s    6 1.00
             5484.6717   0.001831099805527
             825.23495   0.013950098518422
             188.04696    0.06844509273075
               52.9645    0.23271427528445
              16.89757    0.47019295006289
             5.7996353    0.35852086192309
 s    3 1.00
             15.539616   -0.11077750382508
             3.5999336   -0.14802630511126
             1.0137618     1.1307670390447
 s    1 1.00
             0.2700058                   1
 p    3 1.00
             15.539616   0.070874299543311
             3.5999336    0.33975279781076
             1.0137618    0.72715859531445
 p    1 1.00
             0.2700058                   1

[5d]
[7f]
[9g]

[MO]
 Sym= A
 Ene=    -20.68620793
 Spin= Alpha
 Occup=    2.00000
   1    0.00019090999459917
   2    0.00013660030588509
   3    0.0061985417772046
   4    -0.00014519090199917
   5    -6.876670426624e-18
   6    -3.0432688839867e-19
   7    0.0039210783785746
   8    -4.0933542906808e-19
   9    8.770173422566e-20
  10       0.9958270561653
  11      0.02287413009353
  12    -0.012239307146322
  13    -0.0025036444335399
  14    -1.3045122285195e-19
  15    4.8247767070843e-19
  16    0.0038872190162732
  17    -4.7067508996237e-19
  18    -2.0936067003913e-19
 Sym= A
 Ene=     -11.3962894
 Spin= Alpha
 Occup=    2.00000
   1      0.99633743547764
   2      0.02200968418804
   3    -0.0038890203191543
   4     0.004682289763678
   5    3.3957234349515e-18
   6    -4.4652658739169e-19
   7    -0.00078188638824499
   8    -1.9143610378202e-18
   9    2.831549134005e-19
  10    -0.000702996704431
  11    0.0006345736036037
  12    -0.0018686538093507
  13    -0.00067529581562479
  14    4.4585362651402e-20
  15    8.539461085637e-20
  16     0.002810399878457
  17    4.5761370021363e-19
  18    -7.3345996349712e-20
 Sym= A
 Ene=    -1.561547193
 Spin= Alpha
 Occup=    2.00000
   1     -0.11392751971324
   2      0.23376455093132
   3    -0.005604311613051
   4      0.21909462755891
   5    1.1274499224953e-16
   6    1.9962649693573e-17
   7    -0.050524587790406
   8    5.0321033872684e-17
   9    3.3943022867425e-18
  10     -0.20014901987645
  11      0.44931926024209
  12      0.39983103648101
  13     -0.19423512842297
  14    4.806243888522e-17
  15    1.303142159061e-17
  16    -0.053693070102748
  17    3.4015298674514e-17
  18    6.1317431911318e-18
 Sym= A
 Ene=   -0.7970552228
 Spin= Alpha
 Occup=    2.00000
   1      0.12564270477676
   2     -0.31827766782401
   3     -0.18133075342477
   4     -0.13665815409833
   5    3.4481762520297e-16
   6    2.7734272174341e-16
   7     0.031781426149109
   8    1.6036948451418e-16
   9    7.2517784434507e-17
  10     -0.11428394585575
  11      0.26419800509536
  12      0.42802716825711
  13      0.48931625285766
  14    3.3105464113356e-16
  15    9.7885477016341e-17
  16      0.21706649436664
  17    2.1053317873345e-16
  18    6.9394932488977e-17
 Sym= A
 Ene=   -0.6425983707
 Spin= Alpha
 Occup=    2.00000
   1    1.1083648849726e-16
   2    -1.5296562135229e-16
   3    -5.8925633217549e-16
   4    8.1566589143461e-16
   5      0.28788046638906
   6     0.075931289517881
   7    1.7803206284401e-16
   8      0.11176170466097
   9     0.029478243036314
  10    1.0483237780474e-16
  11    -2.7594683851828e-16
  12    -4.2865498861441e-16
  13    -5.7978855393596e-16
  14      0.54107154530805
  15      0.14271291370339
  16    -3.196128942966e-16
  17      0.36863198624197
  18     0.097230292919777
 Sym= A
 Ene=   -0.6425983707
 Spin= Alpha
 Occup=    2.00000
   1    -1.1342438352761e-16
   2    2.2238549307565e-16
   3    4.8140339814116e-16
   4    -4.0398997149062e-16
   5    -0.075931289517881
   6      0.28788046638907
   7    1.1771897613707e-16
   8    -0.029478243036314
   9      0.11176170466097
  10    2.0887472032859e-17
  11    -5.3535634538488e-17
  12    -1.5606016493102e-16
  13    6.7325662155163e-17
  14     -0.14271291370339
  15      0.54107154530805
  16    8.1325675970203e-17
  17    -0.097230292919777
  18      0.36863198624197
 Sym= A
 Ene=    -0.550728892
 Spin= Alpha
 Occup=    2.00000
   1     -0.14188289020171
   2      0.25694469401029
   3      0.65537004065971
   4     -0.44471334324805
   5    -8.0125178695397e-17
   6    1.4183708452701e-17
   7     -0.11155817463735
   8    2.0687469131446e-16
   9    4.0607497553334e-17
  10     0.012678567828999
  11    -0.040649033261505
  12    -0.058705602736908
  13      0.27741980857307
  14    9.9002166674158e-16
  15    -2.5172978690547e-16
  16      0.16248137149496
  17    7.2193710203291e-16
  18    -1.7997202059128e-16
 Sym= A
 Ene=    0.1432690373
 Spin= Alpha
 Occup=    0.00000
   1    -6.78319103992e-17
   2    5.7482361602756e-17
   3    7.1254655713779e-16
   4    4.9797570786046e-17
   5      0.46134975015456
   6     0.010185684764101
   7    1.5354465469511e-16
   8      0.74022803978334
   9     0.016342762652966
  10    4.0327443941349e-17
  11    -1.1135504720464e-16
  12    -5.1515801316666e-16
  13    2.4842711040133e-16
  14     -0.36150572583608
  15    -0.0079813273173988
  16    1.7234216387751e-16
  17     -0.49777418886168
  18    -0.010989863915071
 Sym= A
 Ene=    0.1432690373
 Spin= Alpha
 Occup=    0.00000
   1    -2.4475833966402e-17
   2    -1.4989711707851e-16
   3    4.357756574236e-16
   4    1.0556409199706e-16
   5      -0.0101856847641
   6      0.46134975015456
   7    5.8778143975434e-16
   8    -0.016342762652966
   9      0.74022803978334
  10    5.9593754454619e-17
  11    -2.6196311163616e-16
  12    -4.6011809330265e-16
  13    3.4444851640442e-17
  14    0.0079813273173985
  15     -0.36150572583608
  16    -1.1053908878582e-16
  17     0.010989863915072
  18     -0.49777418886168
 Sym= A
 Ene=    0.4047305367
 Spin= Alpha
 Occup=    0.00000
   1     0.036047279653557
   2      0.14409364743448
   3      -2.0478516084247
   4    -0.086321429313779
   5    -5.2110561830287e-17
   6    3.1229253297359e-16
   7      -1.9388445339942
   8    6.4785477395687e-16
   9    1.495198950037e-16
  10    -0.093097695577657
  11      0.13242491098523
  12       2.1656325130398
  13    -0.095625375072163
  14    -4.5968151876186e-17
  15    -5.1241028608569e-17
  16     -0.79410049919668
  17    -1.0471881541618e-16
  18    -1.755809351338e-16
 Sym= A
 Ene=    0.7280107361
 Spin= Alpha
 Occup=    0.00000
   1    -5.8746743666834e-17
   2    4.3053952791715e-16
   3    -8.810881864931e-16
   4    -6.9194003950077e-16
   5     -0.36063812703371
   6      -1.0206281528434
   7    6.3196704974931e-16
   8      0.36616423209438
   9        1.036267371156
  10    -7.282277114758e-17
  11    5.0739564687436e-16
  12    -2.1361507299547e-16
  13    4.6655325931626e-16
  14    -0.013039937721672
  15    -0.036903828387562
  16    -9.0002584326566e-16
  17    -0.013726823035214
  18    -0.038847756209451
 Sym= A
 Ene=    0.7280107361
 Spin= Alpha
 Occup=    0.00000
   1    1.8123353811255e-16
   2    -3.0983051517511e-15
   3    5.055097801807e-15
   4    1.5146543997577e-15
   5      -1.0206281528434
   6       0.3606381270337
   7    1.0141541459633e-16
   8        1.036267371156
   9     -0.36616423209438
  10    8.3155174079939e-17
  11    -9.4397069946138e-17
  12    -2.0430080468131e-15
  13    -5.5205785203213e-16
  14     -0.03690382838756
  15     0.013039937721672
  16    1.6274390439452e-15
  17    -0.038847756209453
  18     0.013726823035214
 Sym= A
 Ene=    0.7719149284
 Spin= Alpha
 Occup=    0.00000
   1     0.066457608664274
   2      -1.3305536310668
   3       1.6192260889901
   4      0.60630374426487
   5    2.1136257528004e-15
   6    -1.4410670797352e-15
   7     -0.40185578326861
   8    -2.2420558827018e-15
   9    1.6485501156158e-15
  10     0.015159950943448
  11    -0.065406142009591
  12     -0.28245415697737
  13     -0.10834603842863
  14    1.1100707935097e-16
  15    -4.1994939524283e-17
  16      0.28552799335753
  17    9.6355090738389e-17
  18    -1.4479064797893e-16
 Sym= A
 Ene=     1.011324898
 Spin= Alpha
 Occup=    0.00000
   1    -0.0051142815941658
   2       1.2207234928675
   3      0.12703392297541
   4      0.91274494415926
   5    -9.6631527380677e-17
   6    -4.9222182173923e-16
   7     -0.16275756682083
   8    -6.3159284962838e-17
   9    6.4786972261289e-16
  10     0.082269601826517
  11     -0.26707383687037
  12     -0.58881989431066
  13     -0.10621927588829
  14    -1.3739573563673e-17
  15    9.8706512208515e-17
  16        1.463106338057
  17    1.860874786209e-17
  18    -2.284592159025e-16
 Sym= A
 Ene=     1.206008802
 Spin= Alpha
 Occup=    0.00000
   1    -8.5731726247799e-17
   2    2.4365420227205e-16
   3    -2.8323575264537e-16
   4    7.3369157184482e-16
   5     0.098177632910001
   6    0.0015202545435603
   7    -3.6189812606841e-16
   8      -0.5441355272513
   9    -0.0084257939725885
  10    8.2350511553045e-18
  11    2.7762755797912e-17
  12    -9.3142496968578e-17
  13    1.0706099661558e-15
  14     -0.96535866810056
  15     -0.01494832231991
  16    -7.3433341096716e-16
  17       1.2755011167331
  18     0.019750795680788
 Sym= A
 Ene=     1.206008802
 Spin= Alpha
 Occup=    0.00000
   1    -2.591655094779e-16
   2    9.9969320480757e-16
   3    -8.1399703505545e-16
   4    2.4999286763849e-15
   5    -0.0015202545435595
   6     0.098177632910002
   7    -1.0721264064464e-15
   8    0.0084257939725873
   9     -0.54413552725131
  10    3.2162829967868e-17
  11    2.6045904499889e-16
  12    -6.9998871939562e-16
  13    3.3162501140181e-15
  14      0.01494832231991
  15     -0.96535866810056
  16    -2.0262389907117e-15
  17    -0.019750795680788
  18       1.2755011167331
 Sym= A
 Ene=     1.212486176
 Spin= Alpha
 Occup=    0.00000
   1    -0.078585198962108
   2      0.26826594467324
   3     -0.22602593398185
   4      0.71152610375928
   5    -3.1064235948943e-16
   6    6.980737845467e-17
   7     -0.28299132832365
   8    6.3991586351525e-16
   9    1.4043840262563e-15
  10    0.0057765214429732
  11      0.10897325623082
  12      -0.2411339026593
  13       1.0121865812246
  14    9.4339798293823e-16
  15    3.230187891944e-15
  16     -0.65073719731371
  17    -1.2421395475475e-15
  18    -4.2055939712942e-15
 Sym= A
 Ene=     1.842925237
 Spin= Alpha
 Occup=    0.00000
   1    -0.063405031223726
   2      -0.2766022225135
   3      -2.4282324309117
   4     -0.23196372206308
   5    7.458077642413e-17
   6    -5.7088600975709e-17
   7      -1.5226078865561
   8    -9.9919195675088e-17
   9    1.0877724916665e-16
  10     0.037293905769408
  11      -1.8975265861876
  12       4.3043405415822
  13       0.2271345920933
  14    3.7461045834431e-17
  15    2.9891758201977e-17
  16      -1.5753706195869
  17    -5.6022100525291e-17
  18    -1.9415135922734e-17
